<?xml version="1.0"?>
<VTKFile type="UnstructuredGrid"  version="0.1"  >
<UnstructuredGrid>
<Piece  NumberOfPoints="1681" NumberOfCells="3200">
<Points>
<DataArray  type="Float64"  NumberOfComponents="3"  format="ascii">0 0 0  6.25e-06 0 0  1.25e-05 0 0  1.875e-05 0 0  2.5e-05 0 0  3.125e-05 0 0  3.75e-05 0 0  4.375e-05 0 0  5e-05 0 0  5.625000000000001e-05 0 0  6.25e-05 0 0  6.874999999999999e-05 0 0  7.500000000000001e-05 0 0  8.125000000000001e-05 0 0  8.75e-05 0 0  9.375e-05 0 0  0.0001 0 0  0.00010625 0 0  0.0001125 0 0  0.00011875 0 0  0.000125 0 0  0.00013125 0 0  0.0001375 0 0  0.00014375 0 0  0.00015 0 0  0.00015625 0 0  0.0001625 0 0  0.00016875 0 0  0.000175 0 0  0.00018125 0 0  0.0001875 0 0  0.00019375 0 0  0.0002 0 0  0.00020625 0 0  0.0002125 0 0  0.00021875 0 0  0.000225 0 0  0.00023125 0 0  0.0002375 0 0  0.00024375 0 0  0.00025 0 0  0 1.25e-05 0  6.25e-06 1.25e-05 0  1.25e-05 1.25e-05 0  1.875e-05 1.25e-05 0  2.5e-05 1.25e-05 0  3.125e-05 1.25e-05 0  3.75e-05 1.25e-05 0  4.375e-05 1.25e-05 0  5e-05 1.25e-05 0  5.625000000000001e-05 1.25e-05 0  6.25e-05 1.25e-05 0  6.874999999999999e-05 1.25e-05 0  7.500000000000001e-05 1.25e-05 0  8.125000000000001e-05 1.25e-05 0  8.75e-05 1.25e-05 0  9.375e-05 1.25e-05 0  0.0001 1.25e-05 0  0.00010625 1.25e-05 0  0.0001125 1.25e-05 0  0.00011875 1.25e-05 0  0.000125 1.25e-05 0  0.00013125 1.25e-05 0  0.0001375 1.25e-05 0  0.00014375 1.25e-05 0  0.00015 1.25e-05 0  0.00015625 1.25e-05 0  0.0001625 1.25e-05 0  0.00016875 1.25e-05 0  0.000175 1.25e-05 0  0.00018125 1.25e-05 0  0.0001875 1.25e-05 0  0.00019375 1.25e-05 0  0.0002 1.25e-05 0  0.00020625 1.25e-05 0  0.0002125 1.25e-05 0  0.00021875 1.25e-05 0  0.000225 1.25e-05 0  0.00023125 1.25e-05 0  0.0002375 1.25e-05 0  0.00024375 1.25e-05 0  0.00025 1.25e-05 0  0 2.5e-05 0  6.25e-06 2.5e-05 0  1.25e-05 2.5e-05 0  1.875e-05 2.5e-05 0  2.5e-05 2.5e-05 0  3.125e-05 2.5e-05 0  3.75e-05 2.5e-05 0  4.375e-05 2.5e-05 0  5e-05 2.5e-05 0  5.625000000000001e-05 2.5e-05 0  6.25e-05 2.5e-05 0  6.874999999999999e-05 2.5e-05 0  7.500000000000001e-05 2.5e-05 0  8.125000000000001e-05 2.5e-05 0  8.75e-05 2.5e-05 0  9.375e-05 2.5e-05 0  0.0001 2.5e-05 0  0.00010625 2.5e-05 0  0.0001125 2.5e-05 0  0.00011875 2.5e-05 0  0.000125 2.5e-05 0  0.00013125 2.5e-05 0  0.0001375 2.5e-05 0  0.00014375 2.5e-05 0  0.00015 2.5e-05 0  0.00015625 2.5e-05 0  0.0001625 2.5e-05 0  0.00016875 2.5e-05 0  0.000175 2.5e-05 0  0.00018125 2.5e-05 0  0.0001875 2.5e-05 0  0.00019375 2.5e-05 0  0.0002 2.5e-05 0  0.00020625 2.5e-05 0  0.0002125 2.5e-05 0  0.00021875 2.5e-05 0  0.000225 2.5e-05 0  0.00023125 2.5e-05 0  0.0002375 2.5e-05 0  0.00024375 2.5e-05 0  0.00025 2.5e-05 0  0 3.75e-05 0  6.25e-06 3.75e-05 0  1.25e-05 3.75e-05 0  1.875e-05 3.75e-05 0  2.5e-05 3.75e-05 0  3.125e-05 3.75e-05 0  3.75e-05 3.75e-05 0  4.375e-05 3.75e-05 0  5e-05 3.75e-05 0  5.625000000000001e-05 3.75e-05 0  6.25e-05 3.75e-05 0  6.874999999999999e-05 3.75e-05 0  7.500000000000001e-05 3.75e-05 0  8.125000000000001e-05 3.75e-05 0  8.75e-05 3.75e-05 0  9.375e-05 3.75e-05 0  0.0001 3.75e-05 0  0.00010625 3.75e-05 0  0.0001125 3.75e-05 0  0.00011875 3.75e-05 0  0.000125 3.75e-05 0  0.00013125 3.75e-05 0  0.0001375 3.75e-05 0  0.00014375 3.75e-05 0  0.00015 3.75e-05 0  0.00015625 3.75e-05 0  0.0001625 3.75e-05 0  0.00016875 3.75e-05 0  0.000175 3.75e-05 0  0.00018125 3.75e-05 0  0.0001875 3.75e-05 0  0.00019375 3.75e-05 0  0.0002 3.75e-05 0  0.00020625 3.75e-05 0  0.0002125 3.75e-05 0  0.00021875 3.75e-05 0  0.000225 3.75e-05 0  0.00023125 3.75e-05 0  0.0002375 3.75e-05 0  0.00024375 3.75e-05 0  0.00025 3.75e-05 0  0 5e-05 0  6.25e-06 5e-05 0  1.25e-05 5e-05 0  1.875e-05 5e-05 0  2.5e-05 5e-05 0  3.125e-05 5e-05 0  3.75e-05 5e-05 0  4.375e-05 5e-05 0  5e-05 5e-05 0  5.625000000000001e-05 5e-05 0  6.25e-05 5e-05 0  6.874999999999999e-05 5e-05 0  7.500000000000001e-05 5e-05 0  8.125000000000001e-05 5e-05 0  8.75e-05 5e-05 0  9.375e-05 5e-05 0  0.0001 5e-05 0  0.00010625 5e-05 0  0.0001125 5e-05 0  0.00011875 5e-05 0  0.000125 5e-05 0  0.00013125 5e-05 0  0.0001375 5e-05 0  0.00014375 5e-05 0  0.00015 5e-05 0  0.00015625 5e-05 0  0.0001625 5e-05 0  0.00016875 5e-05 0  0.000175 5e-05 0  0.00018125 5e-05 0  0.0001875 5e-05 0  0.00019375 5e-05 0  0.0002 5e-05 0  0.00020625 5e-05 0  0.0002125 5e-05 0  0.00021875 5e-05 0  0.000225 5e-05 0  0.00023125 5e-05 0  0.0002375 5e-05 0  0.00024375 5e-05 0  0.00025 5e-05 0  0 6.25e-05 0  6.25e-06 6.25e-05 0  1.25e-05 6.25e-05 0  1.875e-05 6.25e-05 0  2.5e-05 6.25e-05 0  3.125e-05 6.25e-05 0  3.75e-05 6.25e-05 0  4.375e-05 6.25e-05 0  5e-05 6.25e-05 0  5.625000000000001e-05 6.25e-05 0  6.25e-05 6.25e-05 0  6.874999999999999e-05 6.25e-05 0  7.500000000000001e-05 6.25e-05 0  8.125000000000001e-05 6.25e-05 0  8.75e-05 6.25e-05 0  9.375e-05 6.25e-05 0  0.0001 6.25e-05 0  0.00010625 6.25e-05 0  0.0001125 6.25e-05 0  0.00011875 6.25e-05 0  0.000125 6.25e-05 0  0.00013125 6.25e-05 0  0.0001375 6.25e-05 0  0.00014375 6.25e-05 0  0.00015 6.25e-05 0  0.00015625 6.25e-05 0  0.0001625 6.25e-05 0  0.00016875 6.25e-05 0  0.000175 6.25e-05 0  0.00018125 6.25e-05 0  0.0001875 6.25e-05 0  0.00019375 6.25e-05 0  0.0002 6.25e-05 0  0.00020625 6.25e-05 0  0.0002125 6.25e-05 0  0.00021875 6.25e-05 0  0.000225 6.25e-05 0  0.00023125 6.25e-05 0  0.0002375 6.25e-05 0  0.00024375 6.25e-05 0  0.00025 6.25e-05 0  0 7.500000000000001e-05 0  6.25e-06 7.500000000000001e-05 0  1.25e-05 7.500000000000001e-05 0  1.875e-05 7.500000000000001e-05 0  2.5e-05 7.500000000000001e-05 0  3.125e-05 7.500000000000001e-05 0  3.75e-05 7.500000000000001e-05 0  4.375e-05 7.500000000000001e-05 0  5e-05 7.500000000000001e-05 0  5.625000000000001e-05 7.500000000000001e-05 0  6.25e-05 7.500000000000001e-05 0  6.874999999999999e-05 7.500000000000001e-05 0  7.500000000000001e-05 7.500000000000001e-05 0  8.125000000000001e-05 7.500000000000001e-05 0  8.75e-05 7.500000000000001e-05 0  9.375e-05 7.500000000000001e-05 0  0.0001 7.500000000000001e-05 0  0.00010625 7.500000000000001e-05 0  0.0001125 7.500000000000001e-05 0  0.00011875 7.500000000000001e-05 0  0.000125 7.500000000000001e-05 0  0.00013125 7.500000000000001e-05 0  0.0001375 7.500000000000001e-05 0  0.00014375 7.500000000000001e-05 0  0.00015 7.500000000000001e-05 0  0.00015625 7.500000000000001e-05 0  0.0001625 7.500000000000001e-05 0  0.00016875 7.500000000000001e-05 0  0.000175 7.500000000000001e-05 0  0.00018125 7.500000000000001e-05 0  0.0001875 7.500000000000001e-05 0  0.00019375 7.500000000000001e-05 0  0.0002 7.500000000000001e-05 0  0.00020625 7.500000000000001e-05 0  0.0002125 7.500000000000001e-05 0  0.00021875 7.500000000000001e-05 0  0.000225 7.500000000000001e-05 0  0.00023125 7.500000000000001e-05 0  0.0002375 7.500000000000001e-05 0  0.00024375 7.500000000000001e-05 0  0.00025 7.500000000000001e-05 0  0 8.75e-05 0  6.25e-06 8.75e-05 0  1.25e-05 8.75e-05 0  1.875e-05 8.75e-05 0  2.5e-05 8.75e-05 0  3.125e-05 8.75e-05 0  3.75e-05 8.75e-05 0  4.375e-05 8.75e-05 0  5e-05 8.75e-05 0  5.625000000000001e-05 8.75e-05 0  6.25e-05 8.75e-05 0  6.874999999999999e-05 8.75e-05 0  7.500000000000001e-05 8.75e-05 0  8.125000000000001e-05 8.75e-05 0  8.75e-05 8.75e-05 0  9.375e-05 8.75e-05 0  0.0001 8.75e-05 0  0.00010625 8.75e-05 0  0.0001125 8.75e-05 0  0.00011875 8.75e-05 0  0.000125 8.75e-05 0  0.00013125 8.75e-05 0  0.0001375 8.75e-05 0  0.00014375 8.75e-05 0  0.00015 8.75e-05 0  0.00015625 8.75e-05 0  0.0001625 8.75e-05 0  0.00016875 8.75e-05 0  0.000175 8.75e-05 0  0.00018125 8.75e-05 0  0.0001875 8.75e-05 0  0.00019375 8.75e-05 0  0.0002 8.75e-05 0  0.00020625 8.75e-05 0  0.0002125 8.75e-05 0  0.00021875 8.75e-05 0  0.000225 8.75e-05 0  0.00023125 8.75e-05 0  0.0002375 8.75e-05 0  0.00024375 8.75e-05 0  0.00025 8.75e-05 0  0 0.0001 0  6.25e-06 0.0001 0  1.25e-05 0.0001 0  1.875e-05 0.0001 0  2.5e-05 0.0001 0  3.125e-05 0.0001 0  3.75e-05 0.0001 0  4.375e-05 0.0001 0  5e-05 0.0001 0  5.625000000000001e-05 0.0001 0  6.25e-05 0.0001 0  6.874999999999999e-05 0.0001 0  7.500000000000001e-05 0.0001 0  8.125000000000001e-05 0.0001 0  8.75e-05 0.0001 0  9.375e-05 0.0001 0  0.0001 0.0001 0  0.00010625 0.0001 0  0.0001125 0.0001 0  0.00011875 0.0001 0  0.000125 0.0001 0  0.00013125 0.0001 0  0.0001375 0.0001 0  0.00014375 0.0001 0  0.00015 0.0001 0  0.00015625 0.0001 0  0.0001625 0.0001 0  0.00016875 0.0001 0  0.000175 0.0001 0  0.00018125 0.0001 0  0.0001875 0.0001 0  0.00019375 0.0001 0  0.0002 0.0001 0  0.00020625 0.0001 0  0.0002125 0.0001 0  0.00021875 0.0001 0  0.000225 0.0001 0  0.00023125 0.0001 0  0.0002375 0.0001 0  0.00024375 0.0001 0  0.00025 0.0001 0  0 0.0001125 0  6.25e-06 0.0001125 0  1.25e-05 0.0001125 0  1.875e-05 0.0001125 0  2.5e-05 0.0001125 0  3.125e-05 0.0001125 0  3.75e-05 0.0001125 0  4.375e-05 0.0001125 0  5e-05 0.0001125 0  5.625000000000001e-05 0.0001125 0  6.25e-05 0.0001125 0  6.874999999999999e-05 0.0001125 0  7.500000000000001e-05 0.0001125 0  8.125000000000001e-05 0.0001125 0  8.75e-05 0.0001125 0  9.375e-05 0.0001125 0  0.0001 0.0001125 0  0.00010625 0.0001125 0  0.0001125 0.0001125 0  0.00011875 0.0001125 0  0.000125 0.0001125 0  0.00013125 0.0001125 0  0.0001375 0.0001125 0  0.00014375 0.0001125 0  0.00015 0.0001125 0  0.00015625 0.0001125 0  0.0001625 0.0001125 0  0.00016875 0.0001125 0  0.000175 0.0001125 0  0.00018125 0.0001125 0  0.0001875 0.0001125 0  0.00019375 0.0001125 0  0.0002 0.0001125 0  0.00020625 0.0001125 0  0.0002125 0.0001125 0  0.00021875 0.0001125 0  0.000225 0.0001125 0  0.00023125 0.0001125 0  0.0002375 0.0001125 0  0.00024375 0.0001125 0  0.00025 0.0001125 0  0 0.000125 0  6.25e-06 0.000125 0  1.25e-05 0.000125 0  1.875e-05 0.000125 0  2.5e-05 0.000125 0  3.125e-05 0.000125 0  3.75e-05 0.000125 0  4.375e-05 0.000125 0  5e-05 0.000125 0  5.625000000000001e-05 0.000125 0  6.25e-05 0.000125 0  6.874999999999999e-05 0.000125 0  7.500000000000001e-05 0.000125 0  8.125000000000001e-05 0.000125 0  8.75e-05 0.000125 0  9.375e-05 0.000125 0  0.0001 0.000125 0  0.00010625 0.000125 0  0.0001125 0.0001
[...]
<PointData  Scalars="f_3199"> 
<DataArray  type="Float64"  Name="f_3199"  format="ascii">1.9898117343789867e-12  -3.1010475374329310e-13  4.1776106470892084e-13  -1.1482361771287412e-13  6.3344660481285457e-14  -2.8677563908484373e-14  1.5222904676840241e-14  -7.0745166549481744e-15  2.9634239595597979e-15  -1.1834944417087351e-15  4.3680530817173739e-16  -2.0734216687889982e-16  6.4375450833850090e-17  -5.4961413283840984e-17  -3.2160450224684716e-18  -2.4399597980921493e-17  -1.6303164287083657e-17  -1.9168850813238158e-17  -1.8172568925896483e-17  -1.8498368026364077e-17  -1.8368903767241144e-17  -1.8405996304165864e-17  -1.8379867401158371e-17  -1.8379788752969673e-17  -1.8370311446122653e-17  -1.8365177626073484e-17  -1.8359125723258651e-17  -1.8353947268703089e-17  -1.8348988429310458e-17  -1.8344405929392742e-17  -1.8340110448013963e-17  -1.8336087934420469e-17  -1.8332242158033112e-17  -1.8328837040775773e-17  -1.8326698799439950e-17  -1.8326731783318687e-17  -1.8341914981895950e-17  -1.8101695280862333e-17  -1.7246517951221456e-17  -1.6109433796750657e-17  -7.8746815384295015e-18  -9.8171451394419180e-12  1.0840386234098918e-12  -1.3574663175141610e-12  3.1669013762929914e-13  -2.1273032061577706e-13  9.4488253754078364e-14  -4.7698307067632128e-14  1.9946484257531776e-14  -7.7753799516288461e-15  3.0547330739010762e-15  -1.1638226567199759e-15  5.8930373488704355e-16  -1.7744129790810735e-16  1.5584885294141766e-16  1.8800199664177083e-17  7.0840778740136161e-17  5.2402211018595327e-17  5.8551912066620833e-17  5.6431571318328666e-17  5.7139775363539553e-17  5.6828994883332710e-17  5.6917393127227753e-17  5.6848491625980847e-17  5.6844791893208145e-17  5.6818828141797800e-17  5.6803086323570578e-17  5.6785836658224849e-17  5.6770695593304019e-17  5.6756382145045190e-17  5.6743119403302583e-17  5.6730721623261499e-17  5.6719125180746187e-17  5.6708218511499579e-17  5.6697929400407144e-17  5.6689316432453768e-17  5.6682673622167731e-17  5.6677662448957500e-17  5.6523946826773108e-17  5.5161542343434270e-17  5.2034635060164710e-17  4.4855410436011154e-17  6.6426769546895618e-11  -5.8401953861594434e-12  8.8319137786017260e-12  -2.1944839552077159e-12  1.5626045302502634e-12  -6.4492665150842963e-13  3.0475021564442876e-13  -1.1855143073754836e-13  4.7185029962716771e-14  -1.8437034761913633e-14  8.2526914646037348e-15  -3.1831558070451915e-15  1.7424134209990525e-15  -2.9721727268307092e-16  4.9362954353040911e-16  2.0694328890740582e-16  3.0596687088534430e-16  2.7216568673887237e-16  2.8412521924069837e-16  2.7965834483303108e-16  2.8142234967049765e-16  2.8073061688452901e-16  2.8100541681337107e-16  2.8091196216238400e-16  2.8095154396016717e-16  2.8094495211349965e-16  2.8095256337367858e-16  2.8095550124260424e-16  2.8095942098941473e-16  2.8096276170500696e-16  2.8096595267957511e-16  2.8096892241206524e-16  2.8097172559921987e-16  2.8097442425062715e-16  2.8097641307919128e-16  2.8097511394663465e-16  2.8098670743926733e-16  2.8107706263481052e-16  2.8183977039389250e-16  2.8413596136419970e-16  2.7790483725641450e-16  -4.3213991248913068e-10  2.7540025795618038e-11  -5.9021438911610042e-11  1.4341052488867887e-11  -1.0524903122331146e-11  3.8877150190055181e-12  -1.7642788731352037e-12  6.5545514331107359e-13  -2.6534006444808289e-13  1.1003761191796792e-13  -4.7141737023964116e-14  2.0345882734416906e-14  -7.6763538664538196e-15  3.2816415768930342e-15  -7.2150269581246283e-16  6.6665540059367848e-16  1.9378840357905935e-16  3.5945548341437859e-16  2.9796581720555318e-16  3.2199599674584610e-16  3.1250285294270897e-16  3.1621062603416992e-16  3.1486960817427319e-16  3.1535863297437905e-16  3.1521824612630887e-16  3.1527840866492447e-16  3.1527753216363150e-16  3.1529261619491908e-16  3.1530236984348234e-16  3.1531244488456509e-16  3.1532163724318857e-16  3.1533028327577191e-16  3.1533836970594826e-16  3.1534592790621725e-16  3.1535331465733665e-16  3.1536163152626985e-16  3.1536365986931227e-16  3.1530540526106211e-16  3.1518617662335825e-16  3.1653956943795267e-16  3.2848146343845250e-16  2.7405073638001140e-09  -1.3458555373765437e-10  3.9992379080160510e-10  -9.0664309419096020e-11  6.7530566799662733e-11  -2.1974368732722245e-11  1.0023253900706460e-11  -3.6369011351157515e-12  1.5512648433888548e-12  -6.4967578450091372e-13  2.7685929097459770e-13  -1.1053235236249993e-13  4.1881659232979376e-14  -1.4333769612158647e-14  5.2736998547540076e-15  -1.4117246378980619e-15  9.1704977439982577e-16  5.9635753478877930e-17  3.9240508309124060e-16  2.6089662816182681e-16  3.1188565133363594e-16  2.9299385138593967e-16  2.9956693773755325e-16  2.9740947251685350e-16  2.9806487193277841e-16  2.9787563503490830e-16  2.9792221628847991e-16  2.9790684814753063e-16  2.9790698372045089e-16  2.9790405688866473e-16  2.9790193140342784e-16  2.9789980262976501e-16  2.9789783630884090e-16  2.9789600069094019e-16  2.9789419004544073e-16  2.9789194202400107e-16  2.9789276716315495e-16  2.9791856193420670e-16  2.9782405706528398e-16  2.9736369042674199e-16  2.9598143846352409e-16  -1.7242098463533504e-08  7.5018444969983369e-10  -2.6784987916827310e-09  5.3569093082851025e-10  -4.1447543705192701e-10  1.1811817303173018e-10  -5.7184985407266406e-11  2.0536903984696322e-11  -9.1775829358482320e-12  3.7700663507052828e-12  -1.5412211935145147e-12  5.8099113559033631e-13  -2.0612785784505325e-13  7.0649029240471435e-14  -2.3792715710278831e-14  8.9497953903787207e-15  -3.0018131407988057e-15  1.6045020169315935e-15  -2.1166902209787463e-16  4.9273152950789687e-16  2.3117060765999367e-16  3.2268979086890905e-16  2.9273292058455697e-16  3.0191701135653845e-16  2.9929673364143755e-16  2.9998671538088119e-16  2.9981452941492485e-16  2.9985408962763673e-16  2.9984631345037939e-16  2.9984748179104271e-16  2.9984699492000944e-16  2.9984688739935446e-16  2.9984676255610277e-16  2.9984662286488722e-16  2.9984652670181783e-16  2.9984659363177648e-16  2.9984516762724998e-16  2.9983912211028676e-16  2.9989369404173630e-16  2.9990623138483488e-16  2.9970016114889287e-16  1.0842949573601129e-07  -4.6088888106019253e-09  1.7422461157955105e-08  -2.9026784218152885e-09  2.4722511895825573e-09  -6.1607032173928641e-10  3.3346911548708455e-10  -1.1705955800797089e-10  5.3817955299420457e-11  -2.0970188799424533e-11  8.1706053945432751e-12  -2.8979228077781835e-12  9.9659209241866724e-13  -3.3922165417113401e-13  1.2129292328118614e-13  -4.5481812080506866e-14  1.8310171261015293e-14  -6.7636552189945289e-15  2.9688702174404998e-15  -6.5288985050613510e-16  6.1867427479428536e-16  2.0093147671391014e-16  3.2897138183806859e-16  2.9232936172786021e-16  3.0204882103064047e-16  2.9966958186597299e-16  3.0021803010610064e-16  3.0010499710673812e-16  3.0012372738784656e-16  3.0012088223935565e-16  3.0012183735716372e-16  3.0012207843943602e-16  3.0012219299157101e-16  3.0012238437671153e-16  3.0012254927700964e-16  3.0012269913344699e-16  3.0012332831809124e-16  3.0012373737468353e-16  3.0010775180757376e-16  3.0014187319061917e-16  3.0024362451849465e-16  -6.7944221851071571e-07  2.7662561894692464e-08  -1.0936926831111204e-07  1.4274386529114490e-08  -1.4610216900295141e-08  3.1742465919712229e-09  -1.9871841266067684e-09  6.5856970075033102e-10  -3.0684776534399185e-10  1.1061404055643726e-10  -4.1370364088458661e-11  1.3989593125308118e-11  -4.8054225471215260e-12  1.6917562530191066e-12  -6.3522634789522300e-13  2.4892086622955357e-13  -9.7187631616205485e-14  3.7224538614015453e-14  -1.2924855471810638e-14  4.7349581203270155e-15  -1.0859994768744376e-15  7.0271474873771257e-16  1.9100957856588817e-16  3.2719040794494257e-16  2.9376678438291368e-16  3.0130862474541916e-16  2.9972888413233948e-16  3.0001043986136089e-16  2.9997403536370396e-16  2.9997982480789642e-16  2.9997868835902721e-16  2.9997803365642276e-16  2.9997825291904263e-16  2.9997824054368724e-16  2.9997817057799896e-16  2.9997810524252270e-16  2.9997796977222417e-16  2.9997822575328566e-16  2.9998132641816553e-16  2.9996585127384493e-16  2.9995601450091692e-16  4.2039326977543032e-06  -1.4551700131766562e-07  6.6453251344551492e-07  -6.3067420735518194e-08  8.6880807663999328e-08  -1.6237708511556978e-08  1.1933452767123297e-08  -3.5605594410269984e-09  1.6867672230548011e-09  -5.5161912435773813e-10  2.0330887717045601e-10  -6.6887124648938114e-11  2.3856273618349312e-11  -8.8001642336109954e-12  3.4364928643050410e-12  -1.3442946351633828e-12  5.1096554420322999e-13  -1.8321486494973644e-13  6.2035731146723785e-14  -1.9048515911240615e-14  5.9352480208204547e-15  -1.2225203440491737e-15  6.8116945003855438e-16  2.1264260133904843e-16  3.1814448000632243e-16  2.9653339769983068e-16  3.0052554860687577e-16  2.9996116752766987e-16  3.0000406647806112e-16  2.9999711033485087e-16  2.9999632994959653e-16  2.9999937206310054e-16  2.9999878929251006e-16  2.9999849952120543e-16  2.9999857364270028e-16  2.9999861985343994e-16  2.9999859968337431e-16  2.9999846291545470e-16  2.9999812796663429e-16  3.0000247690936228e-16  2.9999717857367954e-16  -2.5449383141666492e-05  5.9813158995399994e-07  -3.9417151330405420e-06  2.4481118440913596e-07  -5.2272509577478661e-07  8.1081212935251202e-08  -7.1033248481579627e-08  1.8043740860688878e-08  -8.9719862871012514e-09  2.6118430792889163e-09  -9.9596718766466473e-10  3.2538004696887231e-10  -1.2383809765779389e-10  4.7207182349194709e-11  -1.8581672779738658e-11  7.0542721350798662e-12  -2.5460372221062309e-12  8.5962798662784497e-13  -2.6977939425845525e-13  7.9122168187683157e-14  -2.1017242560262873e-14  5.6263055459296660e-15  -9.2343581731613056e-16  5.5375063697741107e-16  2.5327519535584527e-16  3.0752228964454189e-16  2.9927640999148889e-16  2.9994632883628264e-16  3.0000468481022831e-16  2.9999740345577748e-16  3.0001168782071895e-16  3.0000081045238199e-16  3.0000101264109340e-16  3.0000229103777297e-16  3.0000225662235470e-16  3.0000207612518353e-16  3.0000214945596400e-16  3.0000222458407352e-16  3.0000219559399919e-16  3.0000131385140965e-16  3.0000442800199078e-16  1.4992664003138470e-04  -1.3152685277107849e-06  2.3059161569910277e-05  -7.7082905449349636e-07  3.1649370878425991e-06  -3.7829229372996599e-07  4.1492026499473365e-07  -8.3541468357546964e-08  4.6911368447156952e-08  -1.1861238643653763e-08  5.0229893160280873e-09  -1.6360953478407473e-09  6.6720225830162426e-10  -2.5372645046126116e-10  9.7850574753282777e-11  -3.5254781233787396e-11  1.1968208300883837e-11  -3.7689836599559443e-12  1.1028796932571713e-12  -2.9816133170763119e-13  7.4851786394104695e-14  -1.6776870581719613e-14  3.8463329801412122e-15  -3.4763136846202607e-16  3.9959290589020505e-16  2.8870852487901500e-16  2.9953892869032941e-16  3.0054607489714362e-16  2.9995670623367822e-16  3.0003898882980065e-16  2.9996814082188613e-16  2.9999799788654979e-16  3.0000356250646658e-16  2.9999948956237703e-16  2.9999873712546509e-16  2.9999942504283549e-16  2.9999935196879681e-16  2.9999919742450748e-16  2.9999920817596459e-16  2.9999931230961973e-16  2.9999831833636108e-16  -8.5918356908458178e-04  -6.1481754516257725e-06  -1.3409476342828613e-04  1.1694751375444568e-06  -1.9071695516314932e-05  1.5091082521825707e-06  -2.3775679565237028e-06  3.3983216741871678e-07  -2.4742547989085430e-07  5.2288224844971061e-08  -2.6695004284067007e-08  8.4385298259023281e-09  -3.6415587227316768e-09  1.3266285893722759e-09  -4.9268814001166590e-10  1.6594413151125610e-10  -5.2703107208780975e-11  1.5413066062657168e-11  -4.1802206622244476e-12  1.0438181887839387e-12  -2.3835844234080894e-13  4.9658650199419629e-14  -8.7082207337537425e-15  1.6587509881733975e-15  1.5711414977949234e-16  2.9861602798051025e-16  3.0782965404083367e-16  2.9782331060775892e-16  3.0015599356404952e-16  2.9982493419849573e-16  3.0007961680324793e-16  3.0002202670594900e-16  2.9998751702583062e-16  2.9999668150224513e-16  3.0000186413082039e-16  2.9999988901994230e-16  2.9999959260660466e-16  3.0000007667558871e-16  3.0000014267435825e-16  3.0000018366816609e-16  3.0000043616176952e-16  4.8086994339992311e-03  1.0438584569246332e-04  7.7717016803085311e-04  1.0633219814977372e-05  1.1322805579317594e-04  -3.8705741140874339e-06  1.3478543284041060e-05  -1.0987039314030451e-06  1.3533255710431069e-06  -2.2426297970493351e-07  1.4960398926921858e-07  -4.3322464789516722e-08  1.9640958795856696e-08  -6.5878680797134196e-09  2.3488711087250795e-09  -7.2943573095560394e-10  2.1656974565180479e-10  -5.8418319471176251e-11  1.4627543395225597e-11  -3.3333790268318609e-12  6.8800244196553746e-13  -1.2435680161132828e-13  1.9018328352022021e-14  -1.5668631818566390e-15  2.4909929926412059e-16  3.9151396580060438e-16  2.6566089195189387e-16  3.0613059216866550e-16  2.9965097985311008e-16  3.0060013617011400e-16  2.9985705761220071e-16  2.9988691349454218e-16  3.0002602352744167e-16  3.0001855963201508e-16  2.9999559436534873e-16  2.9999934306021023e-16  3.0000183932289925e-16  3.0000045767647229e-16  3.0000015255952820e-16  3.0000005933007933e-16  2.9999990580476223e-16  -2.6458998069607671e-02  -8.7139332833472923e-04  -4.4754596033019641e-03  -1.6233753149979735e-04  -6.5893472291376966e-04  -9.2940371592514190e-06  -7.6626529962540874e-05  1.5930080136841739e-06  -7.7949174866391361e-06  9.0552428790007411e-07  -8.6773871138599492e-07  2.1210700311463298e-07  -1.0316068451331995e-07  3.0428297168767402e-08  -1.0575984562919601e-08  2.9661253490052389e-09  -8.2820367979697529e-10  2.0340226619558951e-10  -4.6795767983297132e-11  9.5529667730682517e-12  -1.7283713063954994e-12  2.5608155460222582e-13  -2.4738700124119452e-14  -7.9039532319865312e-16  1.6158806787524918e-15  -1.2427151615116223e-16  4.0478749979085707e-16  2.8774157598350428e-16  3.0030883794750034e-16  2.9826690446651401e-16  3.0005794769696414e-16  3.0042303492858349e-16  2.9998456701245409e-16  2.9992568475184730e-16  3.0000615820973093e-16  3.0000660734554482e-16  2.9999492202493738e-16  2.9999824609629481e-16  2.9999952293707463e-16  2.9999957871464643e-16  3.0000000032580122e-16  1.4408083151991116e-01  5.8036220621138579e-03  2.5446110303277404e-02  1.5588221645729703e-03  3.7617939644122365e-03  2.3958466739658623e-04  4.4238332770243097e-04  1.5468912709052472e-05  4.7014647739628821e-05  -2.9982964918861699e-06  5.0987445288495738e-06  -9.3528447336456020e-07  5.2726037290594223e-07  -1.2715003576017850e-07  4.5263843877943152e-08  -1.0963354904449913e-08  2.9513602898849750e-09  -6.3879617677105514e-10  1.3523411447358162e-10  -2.3620256399686797e-11  3.5363501548099091e-12  -3.2583216327244409e-13  -1.7369848566429477e-14  1.9475436914442128e-14  -5.5494513929021735e-15  1.6072095926599751e-15  6.1216774839912747e-17  3.1094966297618757e-16  3.0152808475414947e-16  3.0435109321004030e-16  3.0089253041440065e-16  2.9871158117695492e-16  2.9981656427867553e-16  3.0024689905369283e-16  3.0001523230243769e-16  2.9996832260869761e-16  3.0001178997179772e-16  3.0000621965570354e-16  3.0000085824413608e-16  3.0000145572259070e-16  3.0000023754213143e-16  -7.7949873306369610e-01  -3.5067250671744848e-02  -1.4195103168393244e-01  -1.2741221039008441e-02  -2.1181818753661225e-02  -2.3660793524152581e-03  -2.6073769930365937e-03  -2.1605585325624882e-04  -2.9112198955059796e-04  2.7654498228469185e-06  -2.9999639050895618e-05  3.3029840458491662e-06  -2.6616418306718186e-06  4.5157189862014089e-07  -1.8846165383950256e-07  3.5140460786429662e-08  -9.9653571236602374e-09  1.7215475039942725e-09  -3.5051749461301405e-10  4.4940322170659458e-11  -4.7388197837264583e-12  -3.5340039919464154e-13  2.6529510608985997e-13  -8.2412482702970103e-14  1.7836430240182080e-14  -2.6233788725250028e-15  6.5427660341417291e-16  3.3984491491271685e-16  2.8967724567909580e-16  2.9022155396672171e-16  2.9508072599179160e-16  3.0328279727538794e-16  3.0121139274989394e-16  2.9930467187148636e-16  2.9983020796349591e-16  3.0011769620051772e-16  2.9998022296399616e-16  2.9997756216304126e-16  2.9999959721077748e-16  2.9999597772306672e-16  2.9999864566214469e-16  4.1875170866509484e+00  2.0776455066067062e-01  7.7420433417091428e-01  9.4060657250250646e-02  1.1851463891271137e-01  1.8362998842255177e-02  1.5621324754745893e-02  1.9231255689811219e-03  1.8138701427605763e-03  8.3677159058712604e-05  1.7684034664856908e-04  -5.0087168027849528e-06  1.3690000627689577e-05  -1.0660253202641330e-06  8.0688301558823459e-07  -8.0813820974079982e-08  3.4147550914120443e-08  -3.1867074810305434e-09  8.6732393505120022e-10  -2.4959251841529767e-11  -3.5586396917309478e-13  4.4898765776034915e-12  -1.0470574376278952e-12  2.5237664343127304e-13  -3.6337334999409370e-14  4.4273457140068679e-15  3.6244172681199359e-16  5.6643513024205347e-17  3.4326107677958568e-16  3.2238425905416657e-16  3.1698641848760702e-16  2.9298975068781418e-16  2.9492234029362211e-16  3.0162723576227130e-16  3.0088696901044440e-16  2.9963080834678336e-16  2.9999721157438109e-16  3.0008151115612512e-16  2.9999626875565004e-16  3.0000826580890594e-16  3.0000546747261203e-16  -2.2234814960559028e+01  -1.2631516116576196e+00  -4.1305824509678315e+00  -6.3944276303756076e-01  -6.6294143158787300e-01  -1.2664191572893377e-01  -9.4120359279113650e-02  -1.4917620150443673e-02  -1.1231167747781858e-02  -1.1506143890398987e-03  -1.0531871057787524e-03  -5.8954585131471858e-05  -7.4655794206559075e-05  -1.9686796487442198e-06  -3.8849136580044343e-06  -5.6932520682601045e-08  -1.3962640480283259e-07  -4.0855398501259348e-09  -2.7386514006178418e-09  -3.5114233995532994e-10  2.4564729451612901e-11  -1.7296320399496366e-11  3.6891700590751816e-12  -2.8961224252173837e-13  1.1088065654878404e-13  1.8206164396539335e-14  1.3036095736143784e-15  1.7606426108673832e-15  2.7968556282412039e-16  2.6466637116322913e-16  2.6241301908860534e-16  3.1523711708079685e-16  3.1704718853190107e-16  2.9700604716507312e-16  2.9641728348369465e-16  3.0098629092948001e-16  3.0023196265653514e-16  2.9971310025276920e-16  3.0001233260972285e-16  2.9999242360270047e-16  2.9998236789511894e-16  1.1596444016061093e+02  7.8923205644867833e+00  2.1657544810607554e+01  4.0473241923114793e+00  3.7152200176853456e+00  8.1643441971159292e-01  5.6396972331018858e-01  1.0858471019410657e-01  6.8896627283886569e-02  1.0925466325825047e-02  6.4251628917907184e-03  8.7573712100570255e-04  4.5073893312665825e-04  5.7482490148763478e-05  2.3880143833776681e-05  3.2566842273331302e-06  9.9880062314264639e-07  1.7738281770558108e-07  3.9838652110276469e-08  1.0273057826784838e-08  2.0845789471648425e-09  6.1250874384358970e-10  1.3253484033856772e-10  3.3509136014835208e-11  7.4858294243026499e-12  1.5558840277280291e-12  3.3131760707372561e-13  6.0156557651759847e-14  1.1787851610520145e-14  2.3533174359453514e-15  6.4466111306411779e-16  3.0024865082659670e-16  2.5975318660009109e-16  3.0655563436373516e-16  3.1245688494874255e-16  2.9777871854335765e-16  2.9860996306242316e-16  3.0094013328612991e-16  3.0001402221974812e-16  2.9996944464669309e-16  3.0004590389759594e-16  -5.9114195355499771e+02  -4.9044570877569541e+01  -1.1236943648416320e+02  -2.4064731035436726e+01  -2.0774059373979139e+01  -5.0407941448072950e+00  -3.3193133540493509e+00  -7.4914169776651240e-01  -4.1332209841825396e-01  -8.5481356397651753e-02  -3.8411456267900254e-02  -7.2316260357861359e-03  -2.5042286922931172e-03  -3.8296843786015446e-04  -8.1057803824114170e-05  1.3710777185513566e-06  5.4597698080043448e-06  3.0626509172942004e-06  1.2390030085611765e-06  4.1626669894847715e-07  1.2965696317846540e-07  3.6507864227896989e-08  9.6558982307487067e-09  2.3785848573608178e-09  5.4839354223368488e-10  1.1897421842187297e-10  2.4129723939673072e-11  4.6103814201046365e-12  8.2627710017417911e-13  1.3958287619770615e-13  2.2663642631016384e-14  3.7926955799773308e-15  8.4040351620882084e-16  3.2988218020958950e-16  2.6942607664224579e-16  3.0639206687519505e-16  3.0601481529499561e-16  2.9718730311511443e-16  2.9968862040561586e-16  3.0019791560079830e-16  2.99907718175